-- Generated [
-- Format      : ECLIPSE keywords (grid properties) (ASCII)
-- Exported by : Petrel 2022.3.0 Schlumberger
-- User name   : hsu.channeng
-- Date        : Saturday, September 23 2023 11:41:22
-- Project     : simple_grid.pet
-- Grid        : test_boxmodell
-- Unit system : ECLIPSE-Metric
-- Generated ]

PERMZ                                  -- Generated : Petrel
-- Property name in Petrel : Permeability
  10830*100 /


-- Generated [
-- Format      : ECLIPSE keywords (grid properties) (ASCII)
-- Exported by : Petrel 2022.3.0 Schlumberger
-- User name   : hsu.channeng
-- Date        : Saturday, September 23 2023 11:41:22
-- Project     : simple_grid.pet
-- Grid        : test_boxmodell
-- Unit system : ECLIPSE-Metric
-- Generated ]

PORO                                   -- Generated : Petrel
-- Property name in Petrel : Porosity
  10830*0.1 /


-- Generated [
-- Format      : ECLIPSE keywords (grid properties) (ASCII)
-- Exported by : Petrel 2022.3.0 Schlumberger
-- User name   : hsu.channeng
-- Date        : Saturday, September 23 2023 11:41:22
-- Project     : simple_grid.pet
-- Grid        : test_boxmodell
-- Unit system : ECLIPSE-Metric
-- Generated ]

PERMX                                  -- Generated : Petrel
-- Property name in Petrel : Permeability
  10830*100 /


-- Generated [
-- Format      : ECLIPSE keywords (grid properties) (ASCII)
-- Exported by : Petrel 2022.3.0 Schlumberger
-- User name   : hsu.channeng
-- Date        : Saturday, September 23 2023 11:41:22
-- Project     : simple_grid.pet
-- Grid        : test_boxmodell
-- Unit system : ECLIPSE-Metric
-- Generated ]

ROCKNUM                                -- Generated : Petrel
  10830*1 /


-- Generated [
-- Format      : ECLIPSE keywords (grid geometry and properties) (ASCII)
-- Exported by : Petrel 2022.3.0 Schlumberger
-- User name   : hsu.channeng
-- Date        : Saturday, September 23 2023 11:41:22
-- Project     : simple_grid.pet
-- Grid        : test_boxmodell
-- Generated ]

INIT                                   -- Generated : Petrel

GRIDFILE                               -- Generated : Petrel
  0 0 /

GRIDUNIT                               -- Generated : Petrel
  METRES /

MAPUNITS                               -- Generated : Petrel
  METRES /

MAPAXES                                -- Generated : Petrel
  5000 1800 5000 2800 6000 2800 /

PINCH                                  -- Generated : Petrel
  4* ALL /

SPECGRID                               -- Generated : Petrel
  19 19 30 1 F /

COORDSYS                               -- Generated : Petrel
  1 30 INCOMP /

COORD                                  -- Generated : Petrel
  2*0 -0 2*0 100 67.25342338 0 -0 67.25342338 0 100 111.891732 0 -0 111.891732 0 100 141.5196452 0 -0 141.5196452 0 100 161.1846655
  0 -0 161.1846655 0 100 174.2369861 0 -0 174.2369861 0 100 182.9002405 0 -0 182.9002405 0 100 188.6503273 0 -0 188.6503273 0 100
  192.466849 0 -0 192.466849 0 100 195 0 -0 195 0 100 205 0 -0 205 0 100 207.533151 0 -0 207.533151 0 100 211.3496727 0 -0
  211.3496727 0 100 217.0997595 0 -0 217.0997595 0 100 225.7630139 0 -0 225.7630139 0 100 238.8153345 0 -0 238.8153345 0 100
  258.4803548 0 -0 258.4803548 0 100 288.108268 0 -0 288.108268 0 100 332.7465766 0 -0 332.7465766 0 100 400 0 -0 400 0 100 0
  154.1866031 -0 0 154.1866031 100 67.25342338 154.1866031 -0 67.25342338 154.1866031 100 111.891732 154.1866031 -0 111.891732
  154.1866031 100 141.5196452 154.1866031 -0 141.5196452 154.1866031 100 161.1846655 154.1866031 -0 161.1846655 154.1866031 100
  174.2369861 154.1866031 -0 174.2369861 154.1866031 100 182.9002405 154.1866031 -0 182.9002405 154.1866031 100 188.6503273
  154.1866031 -0 188.6503273 154.1866031 100 192.466849 154.1866031 -0 192.466849 154.1866031 100 195 154.1866031 -0 195 154.1866031
  100 205 154.1866031 -0 205 154.1866031 100 207.533151 154.1866031 -0 207.533151 154.1866031 100 211.3496727 154.1866031 -0
  211.3496727 154.1866031 100 217.0997595 154.1866031 -0 217.0997595 154.1866031 100 225.7630139 154.1866031 -0 225.7630139
  154.1866031 100 238.8153345 154.1866031 -0 238.8153345 154.1866031 100 258.4803548 154.1866031 -0 258.4803548 154.1866031 100
  288.108268 154.1866031 -0 288.108268 154.1866031 100 332.7465766 154.1866031 -0 332.7465766 154.1866031 100 400 154.1866031 -0 400
  154.1866031 100 0 248.9394348 -0 0 248.9394348 100 67.25342338 248.9394348 -0 67.25342338 248.9394348 100 111.891732 248.9394348
  -0 111.891732 248.9394348 100 141.5196452 248.9394348 -0 141.5196452 248.9394348 100 161.1846655 248.9394348 -0 161.1846655
  248.9394348 100 174.2369861 248.9394348 -0 174.2369861 248.9394348 100 182.9002405 248.9394348 -0 182.9002405 248.9394348 100
  188.6503273 248.9394348 -0 188.6503273 248.9394348 100 192.466849 248.9394348 -0 192.466849 248.9394348 100 195 248.9394348 -0 195
  248.9394348 100 205 248.9394348 -0 205 248.9394348 100 207.533151 248.9394348 -0 207.533151 248.9394348 100 211.3496727
  248.9394348 -0 211.3496727 248.9394348 100 217.0997595 248.9394348 -0 217.0997595 248.9394348 100 225.7630139 248.9394348 -0
  225.7630139 248.9394348 100 238.8153345 248.9394348 -0 238.8153345 248.9394348 100 258.4803548 248.9394348 -0 258.4803548
  248.9394348 100 288.108268 248.9394348 -0 288.108268 248.9394348 100 332.7465766 248.9394348 -0 332.7465766 248.9394348 100 400
  248.9394348 -0 400 248.9394348 100 0 307.1682233 -0 0 307.1682233 100 67.25342338 307.1682233 -0 67.25342338 307.1682233 100
  111.891732 307.1682233 -0 111.891732 307.1682233 100 141.5196452 307.1682233 -0 141.5196452 307.1682233 100 161.1846655
  307.1682233 -0 161.1846655 307.1682233 100 174.2369861 307.1682233 -0 174.2369861 307.1682233 100 182.9002405 307.1682233 -0
  182.9002405 307.1682233 100 188.6503273 307.1682233 -0 188.6503273 307.1682233 100 192.466849 307.1682233 -0 192.466849
  307.1682233 100 195 307.1682233 -0 195 307.1682233 100 205 307.1682233 -0 205 307.1682233 100 207.533151 307.1682233 -0 207.533151
  307.1682233 100 211.3496727 307.1682233 -0 211.3496727 307.1682233 100 217.0997595 307.1682233 -0 217.0997595 307.1682233 100
  225.7630139 307.1682233 -0 225.7630139 307.1682233 100 238.8153345 307.1682233 -0 238.8153345 307.1682233 100 258.4803548
  307.1682233 -0 258.4803548 307.1682233 100 288.108268 307.1682233 -0 288.108268 307.1682233 100 332.7465766 307.1682233 -0
  332.7465766 307.1682233 100 400 307.1682233 -0 400 307.1682233 100 0 342.9517641 -0 0 342.9517641 100 67.25342338 342.9517641 -0
  67.25342338 342.9517641 100 111.891732 342.9517641 -0 111.891732 342.9517641 100 141.5196452 342.9517641 -0 141.5196452
  342.9517641 100 161.1846655 342.9517641 -0 161.1846655 342.9517641 100 174.2369861 342.9517641 -0 174.2369861 342.9517641 100
  182.9002405 342.9517641 -0 182.9002405 342.9517641 100 188.6503273 342.9517641 -0 188.6503273 342.9517641 100 192.466849
  342.9517641 -0 192.466849 342.9517641 100 195 342.9517641 -0 195 342.9517641 100 205 342.9517641 -0 205 342.9517641 100 207.533151
  342.9517641 -0 207.533151 342.9517641 100 211.3496727 342.9517641 -0 211.3496727 342.9517641 100 217.0997595 342.9517641 -0
  217.0997595 342.9517641 100 225.7630139 342.9517641 -0 225.7630139 342.9517641 100 238.8153345 342.9517641 -0 238.8153345
  342.9517641 100 258.4803548 342.9517641 -0 258.4803548 342.9517641 100 288.108268 342.9517641 -0 288.108268 342.9517641 100
  332.7465766 342.9517641 -0 332.7465766 342.9517641 100 400 342.9517641 -0 400 342.9517641 100 0 364.9419484 -0 0 364.9419484 100
  67.25342338 364.9419484 -0 67.25342338 364.9419484 100 111.891732 364.9419484 -0 111.891732 364.9419484 100 141.5196452
  364.9419484 -0 141.5196452 364.9419484 100 161.1846655 364.9419484 -0 161.1846655 364.9419484 100 174.2369861 364.9419484 -0
  174.2369861 364.9419484 100 182.9002405 364.9419484 -0 182.9002405 364.9419484 100 188.6503273 364.9419484 -0 188.6503273
  364.9419484 100 192.466849 364.9419484 -0 192.466849 364.9419484 100 195 364.9419484 -0 195 364.9419484 100 205 364.9419484 -0 205
  364.9419484 100 207.533151 364.9419484 -0 207.533151 364.9419484 100 211.3496727 364.9419484 -0 211.3496727 364.9419484 100
  217.0997595 364.9419484 -0 217.0997595 364.9419484 100 225.7630139 364.9419484 -0 225.7630139 364.9419484 100 238.8153345
  364.9419484 -0 238.8153345 364.9419484 100 258.4803548 364.9419484 -0 258.4803548 364.9419484 100 288.108268 364.9419484 -0
  288.108268 364.9419484 100 332.7465766 364.9419484 -0 332.7465766 364.9419484 100 400 364.9419484 -0 400 364.9419484 100 0
  378.4556531 -0 0 378.4556531 100 67.25342338 378.4556531 -0 67.25342338 378.4556531 100 111.891732 378.4556531 -0 111.891732
  378.4556531 100 141.5196452 378.4556531 -0 141.5196452 378.4556531 100 161.1846655 378.4556531 -0 161.1846655 378.4556531 100
  174.2369861 378.4556531 -0 174.2369861 378.4556531 100 182.9002405 378.4556531 -0 182.9002405 378.4556531 100 188.6503273
  378.4556531 -0 188.6503273 378.4556531 100 192.466849 378.4556531 -0 192.466849 378.4556531 100 195 378.4556531 -0 195 378.4556531
  100 205 378.4556531 -0 205 378.4556531 100 207.533151 378.4556531 -0 207.533151 378.4556531 100 211.3496727 378.4556531 -0
  211.3496727 378.4556531 100 217.0997595 378.4556531 -0 217.0997595 378.4556531 100 225.7630139 378.4556531 -0 225.7630139
  378.4556531 100 238.8153345 378.4556531 -0 238.8153345 378.4556531 100 258.4803548 378.4556531 -0 258.4803548 378.4556531 100
  288.108268 378.4556531 -0 288.108268 378.4556531 100 332.7465766 378.4556531 -0 332.7465766 378.4556531 100 400 378.4556531 -0 400
  378.4556531 100 0 386.7602773 -0 0 386.7602773 100 67.25342338 386.7602773 -0 67.25342338 386.7602773 100 111.891732 386.7602773
  -0 111.891732 386.7602773 100 141.5196452 386.7602773 -0 141.5196452 386.7602773 100 161.1846655 386.7602773 -0 161.1846655
  386.7602773 100 174.2369861 386.7602773 -0 174.2369861 386.7602773 100 182.9002405 386.7602773 -0 182.9002405 386.7602773 100
  188.6503273 386.7602773 -0 188.6503273 386.7602773 100 192.466849 386.7602773 -0 192.466849 386.7602773 100 195 386.7602773 -0 195
  386.7602773 100 205 386.7602773 -0 205 386.7602773 100 207.533151 386.7602773 -0 207.533151 386.7602773 100 211.3496727
  386.7602773 -0 211.3496727 386.7602773 100 217.0997595 386.7602773 -0 217.0997595 386.7602773 100 225.7630139 386.7602773 -0
  225.7630139 386.7602773 100 238.8153345 386.7602773 -0 238.8153345 386.7602773 100 258.4803548 386.7602773 -0 258.4803548
  386.7602773 100 288.108268 386.7602773 -0 288.108268 386.7602773 100 332.7465766 386.7602773 -0 332.7465766 386.7602773 100 400
  386.7602773 -0 400 386.7602773 100 0 391.863747 -0 0 391.863747 100 67.25342338 391.863747 -0 67.25342338 391.863747 100
  111.891732 391.863747 -0 111.891732 391.863747 100 141.5196452 391.863747 -0 141.5196452 391.863747 100 161.1846655 391.863747 -0
  161.1846655 391.863747 100 174.2369861 391.863747 -0 174.2369861 391.863747 100 182.9002405 391.863747 -0 182.9002405 391.863747
  100 188.6503273 391.863747 -0 188.6503273 391.863747 100 192.466849 391.863747 -0 192.466849 391.863747 100 195 391.863747 -0 195
  391.863747 100 205 391.863747 -0 205 391.863747 100 207.533151 391.863747 -0 207.533151 391.863747 100 211.3496727 391.863747 -0
  211.3496727 391.863747 100 217.0997595 391.863747 -0 217.0997595 391.863747 100 225.7630139 391.863747 -0 225.7630139 391.863747
  100 238.8153345 391.863747 -0 238.8153345 391.863747 100 258.4803548 391.863747 -0 258.4803548 391.863747 100 288.108268
  391.863747 -0 288.108268 391.863747 100 332.7465766 391.863747 -0 332.7465766 391.863747 100 400 391.863747 -0 400 391.863747 100
  0 395 -0 0 395 100 67.25342338 395 -0 67.25342338 395 100 111.891732 395 -0 111.891732 395 100 141.5196452 395 -0 141.5196452 395
  100 161.1846655 395 -0 161.1846655 395 100 174.2369861 395 -0 174.2369861 395 100 182.9002405 395 -0 182.9002405 395 100
  188.6503273 395 -0 188.6503273 395 100 192.466849 395 -0 192.466849 395 100 195 395 -0 195 395 100 205 395 -0 205 395 100
  207.533151 395 -0 207.533151 395 100 211.3496727 395 -0 211.3496727 395 100 217.0997595 395 -0 217.0997595 395 100 225.7630139 395
  -0 225.7630139 395 100 238.8153345 395 -0 238.8153345 395 100 258.4803548 395 -0 258.4803548 395 100 288.108268 395 -0 288.108268
  395 100 332.7465766 395 -0 332.7465766 395 100 400 395 -0 400 395 100 0 405 -0 0 405 100 67.25342338 405 -0 67.25342338 405 100
  111.891732 405 -0 111.891732 405 100 141.5196452 405 -0 141.5196452 405 100 161.1846655 405 -0 161.1846655 405 100 174.2369861 405
  -0 174.2369861 405 100 182.9002405 405 -0 182.9002405 405 100 188.6503273 405 -0 188.6503273 405 100 192.466849 405 -0 192.466849
  405 100 195 405 -0 195 405 100 205 405 -0 205 405 100 207.533151 405 -0 207.533151 405 100 211.3496727 405 -0 211.3496727 405 100
  217.0997595 405 -0 217.0997595 405 100 225.7630139 405 -0 225.7630139 405 100 238.8153345 405 -0 238.8153345 405 100 258.4803548
  405 -0 258.4803548 405 100 288.108268 405 -0 288.108268 405 100 332.7465766 405 -0 332.7465766 405 100 400 405 -0 400 405 100 0
  408.136253 -0 0 408.136253 100 67.25342338 408.136253 -0 67.25342338 408.136253 100 111.891732 408.136253 -0 111.891732 408.136253
  100 141.5196452 408.136253 -0 141.5196452 408.136253 100 161.1846655 408.136253 -0 161.1846655 408.136253 100 174.2369861
  408.136253 -0 174.2369861 408.136253 100 182.9002405 408.136253 -0 182.9002405 408.136253 100 188.6503273 408.136253 -0
  188.6503273 408.136253 100 192.466849 408.136253 -0 192.466849 408.136253 100 195 408.136253 -0 195 408.136253 100 205 408.136253
  -0 205 408.136253 100 207.533151 408.136253 -0 207.533151 408.136253 100 211.3496727 408.136253 -0 211.3496727 408.136253 100
  217.0997595 408.136253 -0 217.0997595 408.136253 100 225.7630139 408.136253 -0 225.7630139 408.136253 100 238.8153345 408.136253
  -0 238.8153345 408.136253 100 258.4803548 408.136253 -0 258.4803548 408.136253 100 288.108268 408.136253 -0 288.108268 408.136253
  100 332.7465766 408.136253 -0 332.7465766 408.136253 100 400 408.136253 -0 400 408.136253 100 0 413.2397227 -0 0 413.2397227 100
  67.25342338 413.2397227 -0 67.25342338 413.2397227 100 111.891732 413.2397227 -0 111.891732 413.2397227 100 141.5196452
  413.2397227 -0 141.5196452 413.2397227 100 161.1846655 413.2397227 -0 161.1846655 413.2397227 100 174.2369861 413.2397227 -0
  174.2369861 413.2397227 100 182.9002405 413.2397227 -0 182.9002405 413.2397227 100 188.6503273 413.2397227 -0 188.6503273
  413.2397227 100 192.466849 413.2397227 -0 192.466849 413.2397227 100 195 413.2397227 -0 195 413.2397227 100 205 413.2397227 -0 205
  413.2397227 100 207.533151 413.2397227 -0 207.533151 413.2397227 100 211.3496727 413.2397227 -0 211.3496727 413.2397227 100
  217.0997595 413.2397227 -0 217.0997595 413.2397227 100 225.7630139 413.2397227 -0 225.7630139 413.2397227 100 238.8153345
  413.2397227 -0 238.8153345 413.2397227 100 258.4803548 413.2397227 -0 258.4803548 413.2397227 100 288.108268 413.2397227 -0
  288.108268 413.2397227 100 332.7465766 413.2397227 -0 332.7465766 413.2397227 100 400 413.2397227 -0 400 413.2397227 100 0
  421.5443469 -0 0 421.5443469 100 67.25342338 421.5443469 -0 67.25342338 421.5443469 100 111.891732 421.5443469 -0 111.891732
  421.5443469 100 141.5196452 421.5443469 -0 141.5196452 421.5443469 100 161.1846655 421.5443469 -0 161.1846655 421.5443469 100
  174.2369861 421.5443469 -0 174.2369861 421.5443469 100 182.9002405 421.5443469 -0 182.9002405 421.5443469 100 188.6503273
  421.5443469 -0 188.6503273 421.5443469 100 192.466849 421.5443469 -0 192.466849 421.5443469 100 195 421.5443469 -0 195 421.5443469
  100 205 421.5443469 -0 205 421.5443469 100 207.533151 421.5443469 -0 207.533151 421.5443469 100 211.3496727 421.5443469 -0
  211.3496727 421.5443469 100 217.0997595 421.5443469 -0 217.0997595 421.5443469 100 225.7630139 421.5443469 -0 225.7630139
  421.5443469 100 238.8153345 421.5443469 -0 238.8153345 421.5443469 100 258.4803548 421.5443469 -0 258.4803548 421.5443469 100
  288.108268 421.5443469 -0 288.108268 421.5443469 100 332.7465766 421.5443469 -0 332.7465766 421.5443469 100 400 421.5443469 -0 400
  421.5443469 100 0 435.0580516 -0 0 435.0580516 100 67.25342338 435.0580516 -0 67.25342338 435.0580516 100 111.891732 435.0580516
  -0 111.891732 435.0580516 100 141.5196452 435.0580516 -0 141.5196452 435.0580516 100 161.1846655 435.0580516 -0 161.1846655
  435.0580516 100 174.2369861 435.0580516 -0 174.2369861 435.0580516 100 182.9002405 435.0580516 -0 182.9002405 435.0580516 100
  188.6503273 435.0580516 -0 188.6503273 435.0580516 100 192.466849 435.0580516 -0 192.466849 435.0580516 100 195 435.0580516 -0 195
  435.0580516 100 205 435.0580516 -0 205 435.0580516 100 207.533151 435.0580516 -0 207.533151 435.0580516 100 211.3496727
  435.0580516 -0 211.3496727 435.0580516 100 217.0997595 435.0580516 -0 217.0997595 435.0580516 100 225.7630139 435.0580516 -0
  225.7630139 435.0580516 100 238.8153345 435.0580516 -0 238.8153345 435.0580516 100 258.4803548 435.0580516 -0 258.4803548
  435.0580516 100 288.108268 435.0580516 -0 288.108268 435.0580516 100 332.7465766 435.0580516 -0 332.7465766 435.0580516 100 400
  435.0580516 -0 400 435.0580516 100 0 457.0482359 -0 0 457.0482359 100 67.25342338 457.0482359 -0 67.25342338 457.0482359 100
  111.891732 457.0482359 -0 111.891732 457.0482359 100 141.5196452 457.0482359 -0 141.5196452 457.0482359 100 161.1846655
  457.0482359 -0 161.1846655 457.0482359 100 174.2369861 457.0482359 -0 174.2369861 457.0482359 100 182.9002405 457.0482359 -0
  182.9002405 457.0482359 100 188.6503273 457.0482359 -0 188.6503273 457.0482359 100 192.466849 457.0482359 -0 192.466849
  457.0482359 100 195 457.0482359 -0 195 457.0482359 100 205 457.0482359 -0 205 457.0482359 100 207.533151 457.0482359 -0 207.533151
  457.0482359 100 211.3496727 457.0482359 -0 211.3496727 457.0482359 100 217.0997595 457.0482359 -0 217.0997595 457.0482359 100
  225.7630139 457.0482359 -0 225.7630139 457.0482359 100 238.8153345 457.0482359 -0 238.8153345 457.0482359 100 258.4803548
  457.0482359 -0 258.4803548 457.0482359 100 288.108268 457.0482359 -0 288.108268 457.0482359 100 332.7465766 457.0482359 -0
  332.7465766 457.0482359 100 400 457.0482359 -0 400 457.0482359 100 0 492.8317767 -0 0 492.8317767 100 67.25342338 492.8317767 -0
  67.25342338 492.8317767 100 111.891732 492.8317767 -0 111.891732 492.8317767 100 141.5196452 492.8317767 -0 141.5196452
  492.8317767 100 161.1846655 492.8317767 -0 161.1846655 492.8317767 100 174.2369861 492.8317767 -0 174.2369861 492.8317767 100
  182.9002405 492.8317767 -0 182.9002405 492.8317767 100 188.6503273 492.8317767 -0 188.6503273 492.8317767 100 192.466849
  492.8317767 -0 192.466849 492.8317767 100 195 492.8317767 -0 195 492.8317767 100 205 492.8317767 -0 205 492.8317767 100 207.533151
  492.8317767 -0 207.533151 492.8317767 100 211.3496727 492.8317767 -0 211.3496727 492.8317767 100 217.0997595 492.8317767 -0
  217.0997595 492.8317767 100 225.7630139 492.8317767 -0 225.7630139 492.8317767 100 238.8153345 492.8317767 -0 238.8153345
  492.8317767 100 258.4803548 492.8317767 -0 258.4803548 492.8317767 100 288.108268 492.8317767 -0 288.108268 492.8317767 100
  332.7465766 492.8317767 -0 332.7465766 492.8317767 100 400 492.8317767 -0 400 492.8317767 100 0 551.0605652 -0 0 551.0605652 100
  67.25342338 551.0605652 -0 67.25342338 551.0605652 100 111.891732 551.0605652 -0 111.891732 551.0605652 100 141.5196452
  551.0605652 -0 141.5196452 551.0605652 100 161.1846655 551.0605652 -0 161.1846655 551.0605652 100 174.2369861 551.0605652 -0
  174.2369861 551.0605652 100 182.9002405 551.0605652 -0 182.9002405 551.0605652 100 188.6503273 551.0605652 -0 188.6503273
  551.0605652 100 192.466849 551.0605652 -0 192.466849 551.0605652 100 195 551.0605652 -0 195 551.0605652 100 205 551.0605652 -0 205
  551.0605652 100 207.533151 551.0605652 -0 207.533151 551.0605652 100 211.3496727 551.0605652 -0 211.3496727 551.0605652 100
  217.0997595 551.0605652 -0 217.0997595 551.0605652 100 225.7630139 551.0605652 -0 225.7630139 551.0605652 100 238.8153345
  551.0605652 -0 238.8153345 551.0605652 100 258.4803548 551.0605652 -0 258.4803548 551.0605652 100 288.108268 551.0605652 -0
  288.108268 551.0605652 100 332.7465766 551.0605652 -0 332.7465766 551.0605652 100 400 551.0605652 -0 400 551.0605652 100 0
  645.8133969 -0 0 645.8133969 100 67.25342338 645.8133969 -0 67.25342338 645.8133969 100 111.891732 645.8133969 -0 111.891732
  645.8133969 100 141.5196452 645.8133969 -0 141.5196452 645.8133969 100 161.1846655 645.8133969 -0 161.1846655 645.8133969 100
  174.2369861 645.8133969 -0 174.2369861 645.8133969 100 182.9002405 645.8133969 -0 182.9002405 645.8133969 100 188.6503273
  645.8133969 -0 188.6503273 645.8133969 100 192.466849 645.8133969 -0 192.466849 645.8133969 100 195 645.8133969 -0 195 645.8133969
  100 205 645.8133969 -0 205 645.8133969 100 207.533151 645.8133969 -0 207.533151 645.8133969 100 211.3496727 645.8133969 -0
  211.3496727 645.8133969 100 217.0997595 645.8133969 -0 217.0997595 645.8133969 100 225.7630139 645.8133969 -0 225.7630139
  645.8133969 100 238.8153345 645.8133969 -0 238.8153345 645.8133969 100 258.4803548 645.8133969 -0 258.4803548 645.8133969 100
  288.108268 645.8133969 -0 288.108268 645.8133969 100 332.7465766 645.8133969 -0 332.7465766 645.8133969 100 400 645.8133969 -0 400
  645.8133969 100 0 800 -0 0 800 100 67.25342338 800 -0 67.25342338 800 100 111.891732 800 -0 111.891732 800 100 141.5196452 800 -0
  141.5196452 800 100 161.1846655 800 -0 161.1846655 800 100 174.2369861 800 -0 174.2369861 800 100 182.9002405 800 -0 182.9002405
  800 100 188.6503273 800 -0 188.6503273 800 100 192.466849 800 -0 192.466849 800 100 195 800 -0 195 800 100 205 800 -0 205 800 100
  207.533151 800 -0 207.533151 800 100 211.3496727 800 -0 211.3496727 800 100 217.0997595 800 -0 217.0997595 800 100 225.7630139 800
  -0 225.7630139 800 100 238.8153345 800 -0 238.8153345 800 100 258.4803548 800 -0 258.4803548 800 100 288.108268 800 -0 288.108268
  800 100 332.7465766 800 -0 332.7465766 800 100 400 800 -0 400 800 100 /

ZCORN                                  -- Generated : Petrel
  1444*-0 2888*5 2888*10 2888*15 2888*20 2888*25 2888*30 2888*35 2888*40 2888*45 2888*50 2888*52.5 2888*55 2888*57.5 2888*60 62.5
  2887*62.5 2888*65 2888*67.5 2888*70 2888*72.5 2888*75 2888*77.5 2888*80 2888*82.5 2888*85 2888*87.5 2888*90 2888*92.5 2888*95
  2888*97.5 1444*100 /

ACTNUM                                 -- Generated : Petrel
  10830*1 /


-- Generated [
-- Format      : ECLIPSE keywords (grid properties) (ASCII)
-- Exported by : Petrel 2022.3.0 Schlumberger
-- User name   : hsu.channeng
-- Date        : Saturday, September 23 2023 11:41:22
-- Project     : simple_grid.pet
-- Grid        : test_boxmodell
-- Unit system : ECLIPSE-Metric
-- Generated ]

PVTNUM                                 -- Generated : Petrel
  10830*1 /


-- Generated [
-- Format      : ECLIPSE keywords (grid properties) (ASCII)
-- Exported by : Petrel 2022.3.0 Schlumberger
-- User name   : hsu.channeng
-- Date        : Saturday, September 23 2023 11:41:22
-- Project     : simple_grid.pet
-- Grid        : test_boxmodell
-- Unit system : ECLIPSE-Metric
-- Generated ]

EQLNUM                                 -- Generated : Petrel
  10830*1 /


-- Generated [
-- Format      : ECLIPSE keywords (grid properties) (ASCII)
-- Exported by : Petrel 2022.3.0 Schlumberger
-- User name   : hsu.channeng
-- Date        : Saturday, September 23 2023 11:41:22
-- Project     : simple_grid.pet
-- Grid        : test_boxmodell
-- Unit system : ECLIPSE-Metric
-- Generated ]

PERMY                                  -- Generated : Petrel
-- Property name in Petrel : Permeability
  10830*100 /


